# energy dos
-2.181173557000000329e+01 7.802201000000000022e+02
-2.180173556999999818e+01 6.914399999999999658e+00
-2.179173557000000017e+01 7.044800000000000395e+00
-2.178173557000000216e+01 7.204299999999999926e+00
-2.177173557000000415e+01 7.398399999999999643e+00
-2.176173556999999903e+01 7.630399999999999849e+00
-2.175173557000000102e+01 7.900000000000000355e+00
-2.174173557000000301e+01 8.203599999999999781e+00
-2.173173557000000500e+01 8.534000000000000696e+00
-2.172173556999999988e+01 8.881399999999999295e+00
-2.171173557000000187e+01 9.233399999999999608e+00
-2.170173557000000386e+01 9.576599999999999113e+00
-2.169173556999999875e+01 9.897500000000000853e+00
-2.168173557000000073e+01 1.018379999999999974e+01
-2.167173557000000272e+01 1.042539999999999978e+01
-2.166173557000000471e+01 1.061500000000000021e+01
-2.165173556999999960e+01 1.074859999999999971e+01
-2.164173557000000159e+01 1.082559999999999967e+01
-2.163173557000000358e+01 1.084820000000000029e+01
-2.162173556999999846e+01 1.082060000000000066e+01
-2.161173557000000045e+01 1.074900000000000055e+01
-2.160173557000000244e+01 1.063969999999999949e+01
-2.159173557000000443e+01 1.049970000000000070e+01
-2.158173556999999931e+01 1.033569999999999922e+01
-2.157173557000000130e+01 1.015390000000000015e+01
-2.156173557000000329e+01 9.961000000000000298e+00
-2.155173556999999818e+01 9.763799999999999812e+00
-2.154173557000000017e+01 9.569900000000000517e+00
-2.153173557000000216e+01 9.387499999999999289e+00
-2.152173557000000415e+01 9.225899999999999324e+00
-2.151173556999999903e+01 9.094500000000000028e+00
-2.150173557000000102e+01 9.002399999999999736e+00
-2.149173557000000301e+01 8.957900000000000418e+00
-2.148173557000000500e+01 8.966699999999999449e+00
-2.147173556999999988e+01 9.032299999999999329e+00
-2.146173557000000187e+01 9.154299999999999216e+00
-2.145173557000000386e+01 9.329100000000000392e+00
-2.144173556999999875e+01 9.549699999999999633e+00
-2.143173557000000073e+01 9.806300000000000239e+00
-2.142173557000000272e+01 1.008689999999999998e+01
-2.141173557000000471e+01 1.037839999999999918e+01
-2.140173556999999960e+01 1.066740000000000066e+01
-2.139173557000000159e+01 1.094079999999999941e+01
-2.138173557000000358e+01 1.118629999999999924e+01
-2.137173556999999846e+01 1.139329999999999998e+01
-2.136173557000000045e+01 1.155279999999999951e+01
-2.135173557000000244e+01 1.165770000000000017e+01
-2.134173557000000443e+01 1.170340000000000025e+01
-2.133173556999999931e+01 1.168800000000000061e+01
-2.132173557000000130e+01 1.161229999999999940e+01
-2.131173557000000329e+01 1.148049999999999926e+01
-2.130173556999999818e+01 1.130000000000000071e+01
-2.129173557000000017e+01 1.108089999999999975e+01
-2.128173557000000216e+01 1.083600000000000030e+01
-2.127173557000000415e+01 1.057910000000000039e+01
-2.126173556999999903e+01 1.032399999999999984e+01
-2.125173557000000102e+01 1.008309999999999995e+01
-2.124173557000000301e+01 9.865700000000000358e+00
-2.123173557000000500e+01 9.676500000000000767e+00
-2.122173556999999988e+01 9.515299999999999869e+00
-2.121173557000000187e+01 9.376799999999999358e+00
-2.120173557000000386e+01 9.250400000000000844e+00
-2.119173556999999875e+01 9.122299999999999187e+00
-2.118173557000000073e+01 8.976900000000000546e+00
-2.117173557000000272e+01 8.798799999999999955e+00
-2.116173557000000471e+01 8.575300000000000367e+00
-2.115173556999999960e+01 8.297900000000000276e+00
-2.114173557000000159e+01 7.964500000000000135e+00
-2.113173557000000358e+01 7.579600000000000115e+00
-2.112173556999999846e+01 7.155000000000000249e+00
-2.111173557000000045e+01 6.708800000000000097e+00
-2.110173557000000244e+01 6.264499999999999957e+00
-2.109173557000000443e+01 5.849199999999999733e+00
-2.108173556999999931e+01 5.491500000000000270e+00
-2.107173557000000130e+01 5.219199999999999839e+00
-2.106173557000000329e+01 5.057400000000000340e+00
-2.105173556999999818e+01 5.026399999999999757e+00
-2.104173557000000017e+01 5.140299999999999869e+00
-2.103173557000000216e+01 5.405700000000000394e+00
-2.102173557000000415e+01 5.821100000000000385e+00
-2.101173556999999903e+01 6.376900000000000013e+00
-2.100173557000000102e+01 7.055699999999999861e+00
-2.099173557000000301e+01 7.833499999999999908e+00
-2.098173557000000500e+01 8.681599999999999540e+00
-2.097173556999999988e+01 9.567700000000000315e+00
-2.096173557000000187e+01 1.045899999999999963e+01
-2.095173557000000386e+01 1.132370000000000054e+01
-2.094173556999999875e+01 1.213330000000000020e+01
-2.093173557000000073e+01 1.286420000000000030e+01
-2.092173557000000272e+01 1.349890000000000079e+01
-2.091173557000000471e+01 1.402619999999999933e+01
-2.090173556999999960e+01 1.444120000000000026e+01
-2.089173557000000159e+01 1.474469999999999992e+01
-2.088173557000000358e+01 1.494170000000000087e+01
-2.087173556999999846e+01 1.504020000000000046e+01
-2.086173557000000045e+01 1.505010000000000048e+01
-2.085173557000000244e+01 1.498179999999999978e+01
-2.084173557000000443e+01 1.484539999999999971e+01
-2.083173556999999931e+01 1.465049999999999919e+01
-2.082173557000000130e+01 1.440600000000000058e+01
-2.081173557000000329e+01 1.412090000000000067e+01
-2.080173556999999818e+01 1.380380000000000074e+01
-2.079173557000000017e+01 1.346449999999999925e+01
-2.078173557000000216e+01 1.311320000000000086e+01
-2.077173557000000415e+01 1.276169999999999938e+01
-2.076173556999999903e+01 1.242229999999999990e+01
-2.075173557000000102e+01 1.210800000000000054e+01
-2.074173557000000301e+01 1.183140000000000036e+01
-2.073173557000000500e+01 1.160430000000000028e+01
-2.072173556999999988e+01 1.143629999999999924e+01
-2.071173557000000187e+01 1.133430000000000071e+01
-2.070173557000000386e+01 1.130180000000000007e+01
-2.069173556999999875e+01 1.133820000000000050e+01
-2.068173557000000073e+01 1.143820000000000014e+01
-2.067173557000000272e+01 1.159259999999999913e+01
-2.066173557000000471e+01 1.178790000000000049e+01
-2.065173556999999960e+01 1.200740000000000052e+01
-2.064173557000000159e+01 1.223230000000000040e+01
-2.063173557000000358e+01 1.244289999999999985e+01
-2.062173556999999846e+01 1.262020000000000053e+01
-2.061173557000000045e+01 1.274789999999999957e+01
-2.060173557000000244e+01 1.281370000000000076e+01
-2.059173557000000443e+01 1.281070000000000064e+01
-2.058173556999999931e+01 1.273820000000000086e+01
-2.057173557000000130e+01 1.260249999999999915e+01
-2.056173557000000329e+01 1.241600000000000037e+01
-2.055173556999999818e+01 1.219679999999999964e+01
-2.054173557000000017e+01 1.196659999999999968e+01
-2.053173557000000216e+01 1.174920000000000009e+01
-2.052173557000000415e+01 1.156780000000000008e+01
-2.051173556999999903e+01 1.144340000000000046e+01
-2.050173557000000102e+01 1.139199999999999946e+01
-2.049173557000000301e+01 1.142370000000000019e+01
-2.048173557000000500e+01 1.154160000000000075e+01
-2.047173556999999988e+01 1.174119999999999919e+01
-2.046173557000000187e+01 1.201099999999999923e+01
-2.045173557000000386e+01 1.233370000000000033e+01
-2.044173556999999875e+01 1.268730000000000047e+01
-2.043173557000000073e+01 1.304710000000000036e+01
-2.042173557000000272e+01 1.338760000000000083e+01
-2.041173557000000471e+01 1.368430000000000035e+01
-2.040173556999999960e+01 1.391549999999999976e+01
-2.039173557000000159e+01 1.406359999999999921e+01
-2.038173557000000358e+01 1.411640000000000050e+01
-2.037173556999999846e+01 1.406770000000000032e+01
-2.036173557000000045e+01 1.391729999999999912e+01
-2.035173557000000244e+01 1.367159999999999975e+01
-2.034173557000000443e+01 1.334270000000000067e+01
-2.033173556999999931e+01 1.294740000000000002e+01
-2.032173557000000130e+01 1.250650000000000084e+01
-2.031173557000000329e+01 1.204330000000000034e+01
-2.030173556999999818e+01 1.158169999999999966e+01
-2.029173557000000017e+01 1.114480000000000004e+01
-2.028173557000000216e+01 1.075350000000000072e+01
-2.027173557000000415e+01 1.042510000000000048e+01
-2.026173556999999903e+01 1.017210000000000036e+01
-2.025173557000000102e+01 1.000220000000000020e+01
-2.024173557000000301e+01 9.918200000000000571e+00
-2.023173557000000500e+01 9.918499999999999872e+00
-2.022173556999999988e+01 9.997899999999999565e+00
-2.021173557000000187e+01 1.014899999999999913e+01
-2.020173557000000386e+01 1.036289999999999978e+01
-2.019173556999999875e+01 1.063030000000000008e+01
-2.018173557000000073e+01 1.094200000000000017e+01
-2.017173557000000272e+01 1.128889999999999993e+01
-2.016173557000000471e+01 1.166230000000000011e+01
-2.015173556999999960e+01 1.205320000000000036e+01
-2.014173557000000159e+01 1.245199999999999996e+01
-2.013173557000000358e+01 1.284849999999999959e+01
-2.012173556999999846e+01 1.323179999999999978e+01
-2.011173557000000045e+01 1.359070000000000000e+01
-2.010173557000000244e+01 1.391450000000000031e+01
-2.009173557000000443e+01 1.419369999999999976e+01
-2.008173556999999931e+01 1.442140000000000022e+01
-2.007173557000000130e+01 1.459370000000000012e+01
-2.006173557000000329e+01 1.471020000000000039e+01
-2.005173556999999818e+01 1.477420000000000044e+01
-2.004173557000000017e+01 1.479199999999999982e+01
-2.003173557000000216e+01 1.477239999999999931e+01
-2.002173557000000415e+01 1.472519999999999918e+01
-2.001173556999999903e+01 1.465990000000000038e+01
-2.000173557000000102e+01 1.458520000000000039e+01
-1.999173557000000301e+01 1.450719999999999921e+01
-1.998173557000000500e+01 1.442989999999999995e+01
-1.997173556999999988e+01 1.435440000000000005e+01
-1.996173557000000187e+01 1.427940000000000076e+01
-1.995173557000000386e+01 1.420190000000000019e+01
-1.994173556999999875e+01 1.411780000000000079e+01
-1.993173557000000073e+01 1.402270000000000039e+01
-1.992173557000000272e+01 1.391269999999999918e+01
-1.991173557000000471e+01 1.378490000000000038e+01
-1.990173556999999960e+01 1.363790000000000013e+01
-1.989173557000000159e+01 1.347209999999999930e+01
-1.988173557000000358e+01 1.328969999999999985e+01
-1.987173556999999846e+01 1.309490000000000087e+01
-1.986173557000000045e+01 1.289419999999999966e+01
-1.985173557000000244e+01 1.269539999999999935e+01
-1.984173557000000443e+01 1.250820000000000043e+01
-1.983173556999999931e+01 1.234340000000000082e+01
-1.982173557000000130e+01 1.221240000000000059e+01
-1.981173557000000329e+01 1.212650000000000006e+01
-1.980173556999999818e+01 1.209650000000000070e+01
-1.979173557000000017e+01 1.213129999999999953e+01
-1.978173557000000216e+01 1.223760000000000048e+01
-1.977173557000000415e+01 1.241890000000000072e+01
-1.976173556999999903e+01 1.267520000000000024e+01
-1.975173557000000102e+01 1.300270000000000081e+01
-1.974173557000000301e+01 1.339400000000000013e+01
-1.973173557000000500e+01 1.383820000000000050e+01
-1.972173556999999988e+01 1.432150000000000034e+01
-1.971173557000000187e+01 1.482799999999999940e+01
-1.970173557000000386e+01 1.533990000000000009e+01
-1.969173556999999875e+01 1.583869999999999933e+01
-1.968173557000000073e+01 1.630549999999999855e+01
-1.967173557000000272e+01 1.672159999999999869e+01
-1.966173557000000471e+01 1.706899999999999906e+01
-1.965173556999999960e+01 1.733129999999999882e+01
-1.964173557000000159e+01 1.749409999999999954e+01
-1.963173557000000358e+01 1.754570000000000007e+01
-1.962173556999999846e+01 1.747850000000000037e+01
-1.961173557000000045e+01 1.728920000000000101e+01
-1.960173557000000244e+01 1.697980000000000089e+01
-1.959173557000000443e+01 1.655839999999999890e+01
-1.958173556999999931e+01 1.603869999999999862e+01
-1.957173557000000130e+01 1.544069999999999965e+01
-1.956173557000000329e+01 1.478899999999999970e+01
-1.955173556999999818e+01 1.411250000000000071e+01
-1.954173557000000017e+01 1.344260000000000055e+01
-1.953173557000000216e+01 1.281129999999999924e+01
-1.952173557000000415e+01 1.224970000000000070e+01
-1.951173556999999903e+01 1.178570000000000029e+01
-1.950173557000000102e+01 1.144260000000000055e+01
-1.949173557000000301e+01 1.123729999999999940e+01
-1.948173557000000500e+01 1.117929999999999957e+01
-1.947173556999999988e+01 1.126960000000000051e+01
-1.946173557000000187e+01 1.150070000000000014e+01
-1.945173557000000386e+01 1.185670000000000002e+01
-1.944173556999999875e+01 1.231470000000000020e+01
-1.943173557000000073e+01 1.284580000000000055e+01
-1.942173557000000272e+01 1.341750000000000043e+01
-1.941173557000000471e+01 1.399649999999999928e+01
-1.940173556999999960e+01 1.455100000000000016e+01
-1.939173557000000159e+01 1.505369999999999919e+01
-1.938173557000000358e+01 1.548409999999999975e+01
-1.937173556999999846e+01 1.583019999999999960e+01
-1.936173557000000045e+01 1.608950000000000102e+01
-1.935173557000000244e+01 1.626859999999999928e+01
-1.934173557000000443e+01 1.638250000000000028e+01
-1.933173556999999931e+01 1.645270000000000010e+01
-1.932173557000000130e+01 1.650420000000000087e+01
-1.931173557000000329e+01 1.656330000000000169e+01
-1.930173556999999818e+01 1.665480000000000160e+01
-1.929173557000000017e+01 1.679919999999999902e+01
-1.928173557000000216e+01 1.701089999999999947e+01
-1.927173557000000415e+01 1.729759999999999920e+01
-1.926173556999999903e+01 1.765930000000000177e+01
-1.925173557000000102e+01 1.808869999999999933e+01
-1.924173557000000301e+01 1.857199999999999918e+01
-1.923173557000000500e+01 1.908990000000000009e+01
-1.922173556999999988e+01 1.961880000000000024e+01
-1.921173557000000187e+01 2.013230000000000075e+01
-1.920173557000000386e+01 2.060269999999999868e+01
-1.919173556999999875e+01 2.100209999999999866e+01
-1.918173557000000073e+01 2.130460000000000065e+01
-1.917173557000000272e+01 2.148699999999999832e+01
-1.916173557000000471e+01 2.153099999999999881e+01
-1.915173556999999960e+01 2.142419999999999902e+01
-1.914173557000000159e+01 2.116150000000000020e+01
-1.913173557000000358e+01 2.074549999999999983e+01
-1.912173556999999846e+01 2.018680000000000163e+01
-1.911173557000000045e+01 1.950379999999999825e+01
-1.910173557000000244e+01 1.872070000000000078e+01
-1.909173557000000443e+01 1.786670000000000158e+01
-1.908173556999999931e+01 1.697329999999999828e+01
-1.907173557000000130e+01 1.607250000000000156e+01
-1.906173557000000329e+01 1.519430000000000014e+01
-1.905173556999999818e+01 1.436560000000000059e+01
-1.904173557000000017e+01 1.360839999999999961e+01
-1.903173557000000216e+01 1.293999999999999950e+01
-1.902173557000000415e+01 1.237219999999999942e+01
-1.901173556999999903e+01 1.191259999999999941e+01
-1.900173557000000102e+01 1.156429999999999936e+01
-1.899173557000000301e+01 1.132729999999999926e+01
-1.898173557000000500e+01 1.119890000000000008e+01
-1.897173556999999988e+01 1.117420000000000080e+01
-1.896173557000000187e+01 1.124629999999999974e+01
-1.895173557000000386e+01 1.140659999999999918e+01
-1.894173556999999875e+01 1.164480000000000004e+01
-1.893173557000000073e+01 1.194919999999999938e+01
-1.892173557000000272e+01 1.230719999999999992e+01
-1.891173557000000471e+01 1.270560000000000045e+01
-1.890173556999999960e+01 1.313150000000000084e+01
-1.889173557000000159e+01 1.357300000000000040e+01
-1.888173557000000358e+01 1.401980000000000004e+01
-1.887173556999999846e+01 1.446340000000000003e+01
-1.886173557000000045e+01 1.489789999999999992e+01
-1.885173557000000244e+01 1.531889999999999930e+01
-1.884173557000000443e+01 1.572390000000000043e+01
-1.883173556999999931e+01 1.611080000000000112e+01
-1.882173557000000130e+01 1.647790000000000177e+01
-1.881173557000000329e+01 1.682250000000000156e+01
-1.880173556999999818e+01 1.714130000000000109e+01
-1.879173557000000017e+01 1.742940000000000111e+01
-1.878173557000000216e+01 1.768120000000000047e+01
-1.877173557000000415e+01 1.789059999999999917e+01
-1.876173556999999903e+01 1.805209999999999937e+01
-1.875173557000000102e+01 1.816120000000000090e+01
-1.874173557000000301e+01 1.821610000000000085e+01
-1.873173557000000500e+01 1.821770000000000067e+01
-1.872173556999999988e+01 1.817070000000000007e+01
-1.871173557000000187e+01 1.808370000000000033e+01
-1.870173557000000386e+01 1.796849999999999881e+01
-1.869173556999999875e+01 1.784039999999999893e+01
-1.868173557000000073e+01 1.771630000000000038e+01
-1.867173557000000272e+01 1.761420000000000030e+01
-1.866173557000000471e+01 1.755110000000000170e+01
-1.865173556999999960e+01 1.754220000000000113e+01
-1.864173557000000159e+01 1.759919999999999973e+01
-1.863173557000000358e+01 1.772899999999999920e+01
-1.862173556999999846e+01 1.793339999999999890e+01
-1.861173557000000045e+01 1.820830000000000126e+01
-1.860173557000000244e+01 1.854410000000000025e+01
-1.859173557000000443e+01 1.892620000000000147e+01
-1.858173556999999931e+01 1.933589999999999876e+01
-1.857173557000000130e+01 1.975189999999999912e+01
-1.856173557000000329e+01 2.015170000000000172e+01
-1.855173556999999818e+01 2.051310000000000144e+01
-1.854173557000000017e+01 2.081569999999999965e+01
-1.853173557000000216e+01 2.104200000000000159e+01
-1.852173557000000415e+01 2.117879999999999896e+01
-1.851173556999999903e+01 2.121740000000000137e+01
-1.850173557000000102e+01 2.115429999999999922e+01
-1.849173557000000301e+01 2.099119999999999919e+01
-1.848173557000000500e+01 2.073460000000000036e+01
-1.847173556999999988e+01 2.039549999999999841e+01
-1.846173557000000187e+01 1.998839999999999861e+01
-1.845173557000000386e+01 1.953059999999999974e+01
-1.844173556999999875e+01 1.904090000000000060e+01
-1.843173557000000073e+01 1.853849999999999909e+01
-1.842173557000000272e+01 1.804139999999999944e+01
-1.841173557000000471e+01 1.756589999999999918e+01
-1.840173556999999960e+01 1.712509999999999977e+01
-1.839173557000000159e+01 1.672860000000000014e+01
-1.838173557000000358e+01 1.638230000000000075e+01
-1.837173556999999846e+01 1.608810000000000073e+01
-1.836173557000000045e+01 1.584490000000000087e+01
-1.835173557000000244e+01 1.564939999999999998e+01
-1.834173557000000443e+01 1.549660000000000082e+01
-1.833173556999999931e+01 1.538129999999999953e+01
-1.832173557000000130e+01 1.529879999999999995e+01
-1.831173557000000329e+01 1.524530000000000030e+01
-1.830173556999999818e+01 1.521850000000000058e+01
-1.829173557000000017e+01 1.521729999999999983e+01
-1.828173557000000216e+01 1.524169999999999980e+01
-1.827173557000000415e+01 1.529219999999999935e+01
-1.826173556999999903e+01 1.536960000000000015e+01
-1.825173557000000102e+01 1.547450000000000081e+01
-1.824173557000000301e+01 1.560720000000000063e+01
-1.823173557000000500e+01 1.576810000000000045e+01
-1.822173556999999988e+01 1.595800000000000018e+01
-1.821173557000000187e+01 1.617820000000000036e+01
-1.820173557000000386e+01 1.643169999999999931e+01
-1.819173556999999875e+01 1.672309999999999874e+01
-1.818173557000000073e+01 1.705890000000000128e+01
-1.817173557000000272e+01 1.744650000000000034e+01
-1.816173557000000471e+01 1.789420000000000144e+01
-1.815173556999999960e+01 1.840960000000000107e+01
-1.814173557000000159e+01 1.899790000000000134e+01
-1.813173557000000358e+01 1.966069999999999851e+01
-1.812173556999999846e+01 2.039460000000000051e+01
-1.811173557000000045e+01 2.118959999999999866e+01
-1.810173557000000244e+01 2.202919999999999945e+01
-1.809173557000000443e+01 2.288990000000000080e+01
-1.808173556999999931e+01 2.374230000000000018e+01
-1.807173557000000130e+01 2.455270000000000152e+01
-1.806173557000000329e+01 2.528460000000000107e+01
-1.805173556999999818e+01 2.590220000000000056e+01
-1.804173557000000017e+01 2.637259999999999849e+01
-1.803173557000000216e+01 2.666920000000000002e+01
-1.802173557000000415e+01 2.677390000000000114e+01
-1.801173556999999903e+01 2.667980000000000018e+01
-1.800173557000000102e+01 2.639229999999999876e+01
-1.799173557000000301e+01 2.592950000000000088e+01
-1.798173557000000500e+01 2.532120000000000104e+01
-1.797173556999999988e+01 2.460780000000000101e+01
-1.796173557000000187e+01 2.383650000000000091e+01
-1.795173557000000386e+01 2.305829999999999913e+01
-1.794173556999999875e+01 2.232359999999999900e+01
-1.793173557000000073e+01 2.167790000000000106e+01
-1.792173557000000272e+01 2.115850000000000009e+01
-1.791173557000000471e+01 2.079100000000000037e+01
-1.790173556999999960e+01 2.058800000000000097e+01
-1.789173557000000159e+01 2.054820000000000135e+01
-1.788173557000000358e+01 2.065769999999999840e+01
-1.787173556999999846e+01 2.089130000000000109e+01
-1.786173557000000045e+01 2.121630000000000038e+01
-1.785173557000000244e+01 2.159570000000000078e+01
-1.784173557000000443e+01 2.199190000000000111e+01
-1.783173556999999931e+01 2.237030000000000030e+01
-1.782173557000000130e+01 2.270260000000000034e+01
-1.781173557000000329e+01 2.296849999999999881e+01
-1.780173556999999818e+01 2.315700000000000003e+01
-1.779173557000000017e+01 2.326640000000000086e+01
-1.778173557000000216e+01 2.330320000000000036e+01
-1.777173557000000415e+01 2.327990000000000137e+01
-1.776173556999999903e+01 2.321280000000000143e+01
-1.775173557000000102e+01 2.311890000000000001e+01
-1.774173557000000301e+01 2.301340000000000074e+01
-1.773173556999999789e+01 2.290709999999999980e+01
-1.772173556999999988e+01 2.280470000000000041e+01
-1.771173557000000187e+01 2.270469999999999899e+01
-1.770173557000000031e+01 2.259929999999999950e+01
-1.769173556999999875e+01 2.247579999999999956e+01
-1.768173557000000073e+01 2.231899999999999906e+01
-1.767173556999999917e+01 2.211339999999999861e+01
-1.766173556999999761e+01 2.184619999999999962e+01
-1.765173556999999960e+01 2.150959999999999894e+01
-1.764173557000000159e+01 2.110229999999999961e+01
-1.763173557000000002e+01 2.063109999999999999e+01
-1.762173556999999846e+01 2.011029999999999873e+01
-1.761173557000000045e+01 1.956149999999999878e+01
-1.760173556999999889e+01 1.901129999999999853e+01
-1.759173556999999732e+01 1.848999999999999844e+01
-1.758173556999999931e+01 1.802890000000000015e+01
-1.757173557000000130e+01 1.765800000000000125e+01
-1.756173556999999974e+01 1.740419999999999945e+01
-1.755173556999999818e+01 1.728969999999999985e+01
-1.754173557000000017e+01 1.733050000000000068e+01
-1.753173557000000216e+01 1.753610000000000113e+01
-1.752173557000000059e+01 1.790840000000000032e+01
-1.751173556999999903e+01 1.844239999999999924e+01
-1.750173557000000102e+01 1.912559999999999860e+01
-1.749173556999999946e+01 1.993929999999999936e+01
-1.748173556999999789e+01 2.085829999999999984e+01
-1.747173556999999988e+01 2.185279999999999845e+01
-1.746173557000000187e+01 2.288919999999999888e+01
-1.745173557000000031e+01 2.393189999999999884e+01
-1.744173556999999875e+01 2.494549999999999912e+01
-1.743173557000000073e+01 2.589659999999999940e+01
-1.742173556999999917e+01 2.675580000000000069e+01
-1.741173556999999761e+01 2.750009999999999977e+01
-1.740173556999999960e+01 2.811349999999999838e+01
-1.739173557000000159e+01 2.858820000000000050e+01
-1.738173557000000002e+01 2.892449999999999832e+01
-1.737173556999999846e+01 2.912989999999999924e+01
-1.736173557000000045e+01 2.921819999999999951e+01
-1.735173556999999889e+01 2.920739999999999981e+01
-1.734173556999999732e+01 2.911809999999999832e+01
-1.733173556999999931e+01 2.897119999999999962e+01
-1.732173557000000130e+01 2.878659999999999997e+01
-1.731173556999999974e+01 2.858180000000000121e+01
-1.730173556999999818e+01 2.837079999999999913e+01
-1.729173557000000017e+01 2.816410000000000124e+01
-1.728173557000000216e+01 2.796799999999999997e+01
-1.727173557000000059e+01 2.778490000000000038e+01
-1.726173556999999903e+01 2.761370000000000147e+01
-1.725173557000000102e+01 2.745029999999999859e+01
-1.724173556999999946e+01 2.728729999999999833e+01
-1.723173556999999789e+01 2.711560000000000059e+01
-1.722173556999999988e+01 2.692399999999999949e+01
-1.721173557000000187e+01 2.670029999999999859e+01
-1.720173557000000031e+01 2.643199999999999861e+01
-1.719173556999999875e+01 2.610670000000000002e+01
-1.718173557000000073e+01 2.571359999999999957e+01
-1.717173556999999917e+01 2.524360000000000070e+01
-1.716173556999999761e+01 2.469069999999999965e+01
-1.715173556999999960e+01 2.405260000000000176e+01
-1.714173557000000159e+01 2.333149999999999835e+01
-1.713173557000000002e+01 2.253480000000000061e+01
-1.712173556999999846e+01 2.167510000000000048e+01
-1.711173557000000045e+01 2.077039999999999864e+01
-1.710173556999999889e+01 1.984349999999999881e+01
-1.709173556999999732e+01 1.892119999999999891e+01
-1.708173556999999931e+01 1.803229999999999933e+01
-1.707173557000000130e+01 1.720609999999999928e+01
-1.706173556999999974e+01 1.646979999999999933e+01
-1.705173556999999818e+01 1.584650000000000070e+01
-1.704173557000000017e+01 1.535260000000000069e+01
-1.703173557000000216e+01 1.499660000000000082e+01
-1.702173557000000059e+01 1.477849999999999930e+01
-1.701173556999999903e+01 1.468979999999999997e+01
-1.700173557000000102e+01 1.471540000000000070e+01
-1.699173556999999946e+01 1.483549999999999969e+01
-1.698173556999999789e+01 1.502890000000000015e+01
-1.697173556999999988e+01 1.527590000000000003e+01
-1.696173557000000187e+01 1.556170000000000009e+01
-1.695173557000000031e+01 1.587819999999999965e+01
-1.694173556999999875e+01 1.622550000000000026e+01
-1.693173557000000073e+01 1.661129999999999995e+01
-1.692173556999999917e+01 1.705000000000000071e+01
-1.691173556999999761e+01 1.755969999999999942e+01
-1.690173556999999960e+01 1.815889999999999915e+01
-1.689173557000000159e+01 1.886260000000000048e+01
-1.688173557000000002e+01 1.967909999999999826e+01
-1.687173556999999846e+01 2.060650000000000048e+01
-1.686173557000000045e+01 2.163139999999999930e+01
-1.685173556999999889e+01 2.272810000000000130e+01
-1.684173556999999732e+01 2.385970000000000013e+01
-1.683173556999999931e+01 2.498010000000000019e+01
-1.682173557000000130e+01 2.603750000000000142e+01
-1.681173556999999974e+01 2.697860000000000014e+01
-1.680173556999999818e+01 2.775270000000000081e+01
-1.679173557000000017e+01 2.831619999999999848e+01
-1.678173557000000216e+01 2.863579999999999970e+01
-1.677173557000000059e+01 2.869160000000000110e+01
-1.676173556999999903e+01 2.847879999999999967e+01
-1.675173557000000102e+01 2.800720000000000098e+01
-1.674173556999999946e+01 2.730160000000000053e+01
-1.673173556999999789e+01 2.639859999999999829e+01
-1.672173556999999988e+01 2.534509999999999863e+01
-1.671173557000000187e+01 2.419429999999999836e+01
-1.670173557000000031e+01 2.300230000000000175e+01
-1.669173556999999875e+01 2.182509999999999906e+01
-1.668173557000000073e+01 2.071519999999999939e+01
-1.667173556999999917e+01 1.971869999999999834e+01
-1.666173556999999761e+01 1.887349999999999994e+01
-1.665173556999999960e+01 1.820739999999999981e+01
-1.664173557000000159e+01 1.773740000000000094e+01
-1.663173557000000002e+01 1.746910000000000096e+01
-1.662173556999999846e+01 1.739730000000000132e+01
-1.661173557000000045e+01 1.750649999999999906e+01
-1.660173556999999889e+01 1.777270000000000039e+01
-1.659173556999999732e+01 1.816479999999999961e+01
-1.658173556999999931e+01 1.864679999999999893e+01
-1.657173557000000130e+01 1.918029999999999902e+01
-1.656173556999999974e+01 1.972640000000000171e+01
-1.655173556999999818e+01 2.024849999999999994e+01
-1.654173557000000017e+01 2.071399999999999864e+01
-1.653173557000000216e+01 2.109600000000000009e+01
-1.652173557000000059e+01 2.137450000000000117e+01
-1.651173556999999903e+01 2.153740000000000165e+01
-1.650173557000000102e+01 2.158060000000000045e+01
-1.649173556999999946e+01 2.150750000000000028e+01
-1.648173556999999789e+01 2.132890000000000086e+01
-1.647173556999999988e+01 2.106159999999999854e+01
-1.646173557000000187e+01 2.072769999999999868e+01
-1.645173557000000031e+01 2.035239999999999938e+01
-1.644173556999999875e+01 1.996320000000000050e+01
-1.643173557000000073e+01 1.958800000000000097e+01
-1.642173556999999917e+01 1.925369999999999848e+01
-1.641173556999999761e+01 1.898450000000000060e+01
-1.640173556999999960e+01 1.880089999999999861e+01
-1.639173557000000159e+01 1.871849999999999881e+01
-1.638173557000000002e+01 1.874680000000000035e+01
-1.637173556999999846e+01 1.888929999999999865e+01
-1.636173557000000045e+01 1.914329999999999998e+01
-1.635173556999999889e+01 1.950019999999999953e+01
-1.634173556999999732e+01 1.994600000000000151e+01
-1.633173556999999931e+01 2.046290000000000120e+01
-1.632173557000000130e+01 2.103000000000000114e+01
-1.631173556999999974e+01 2.162490000000000023e+01
-1.630173556999999818e+01 2.222490000000000165e+01
-1.629173557000000017e+01 2.280780000000000030e+01
-1.628173557000000216e+01 2.335320000000000107e+01
-1.627173557000000059e+01 2.384290000000000020e+01
-1.626173556999999903e+01 2.426119999999999877e+01
-1.625173557000000102e+01 2.459530000000000172e+01
-1.624173556999999946e+01 2.483579999999999899e+01
-1.623173556999999789e+01 2.497619999999999862e+01
-1.622173556999999988e+01 2.501360000000000028e+01
-1.621173557000000187e+01 2.494839999999999947e+01
-1.620173557000000031e+01 2.478460000000000107e+01
-1.619173556999999875e+01 2.452959999999999852e+01
-1.618173557000000073e+01 2.419340000000000046e+01
-1.617173556999999917e+01 2.378879999999999839e+01
-1.616173556999999761e+01 2.332959999999999923e+01
-1.615173556999999960e+01 2.283040000000000092e+01
-1.614173557000000159e+01 2.230489999999999995e+01
-1.613173557000000002e+01 2.176549999999999940e+01
-1.612173556999999846e+01 2.122180000000000177e+01
-1.611173557000000045e+01 2.068039999999999878e+01
-1.610173556999999889e+01 2.014489999999999981e+01
-1.609173556999999732e+01 1.961599999999999966e+01
-1.608173556999999931e+01 1.909219999999999828e+01
-1.607173557000000130e+01 1.857049999999999912e+01
-1.606173556999999974e+01 1.804799999999999827e+01
-1.605173556999999818e+01 1.752230000000000132e+01
-1.604173557000000017e+01 1.699289999999999878e+01
-1.603173557000000216e+01 1.646160000000000068e+01
-1.602173557000000059e+01 1.593309999999999960e+01
-1.601173556999999903e+01 1.541450000000000031e+01
-1.600173557000000102e+01 1.491549999999999976e+01
-1.599173556999999946e+01 1.444679999999999964e+01
-1.598173556999999967e+01 1.401970000000000027e+01
-1.597173556999999988e+01 1.364439999999999920e+01
-1.596173557000000010e+01 1.332929999999999993e+01
-1.595173557000000031e+01 1.307920000000000016e+01